
      244  atoms     
      839  bonds     

        8  atom types
        3  bond types

-2.0000000000e+00 1.7000000000e+01 xlo xhi
-2.0000000000e+00 5.8000000000e+00 ylo yhi
-3.0000000000e+00 2.5000000000e+00 zlo zhi

Atoms

         1    0.000000000000e+00   2.000000000000e-01   0.000000000000e+00
         2    5.000000000000e-01   2.000000000000e-01   0.000000000000e+00
         3    1.000000000000e+00   2.000000000000e-01   0.000000000000e+00
         4    1.500000000000e+00   2.000000000000e-01   0.000000000000e+00
         5    2.000000000000e+00   2.000000000000e-01   0.000000000000e+00
         6    2.500000000000e+00   2.000000000000e-01   0.000000000000e+00
         7    3.000000000000e+00   2.000000000000e-01   0.000000000000e+00
         8    3.500000000000e+00   2.000000000000e-01   0.000000000000e+00
         9    4.000000000000e+00   2.000000000000e-01   0.000000000000e+00
        10    4.500000000000e+00   2.000000000000e-01   0.000000000000e+00
        11    5.000000000000e+00   2.000000000000e-01   0.000000000000e+00
        12    5.500000000000e+00   2.000000000000e-01   0.000000000000e+00
        13    6.000000000000e+00   2.000000000000e-01   0.000000000000e+00
        14    6.500000000000e+00   2.000000000000e-01   0.000000000000e+00
        15    7.000000000000e+00   2.000000000000e-01   0.000000000000e+00
        16    7.500000000000e+00   2.000000000000e-01   0.000000000000e+00
        17    8.000000000000e+00   2.000000000000e-01   0.000000000000e+00
        18    8.500000000000e+00   2.000000000000e-01   0.000000000000e+00
        19    9.000000000000e+00   2.000000000000e-01   0.000000000000e+00
        20    9.500000000000e+00   2.000000000000e-01   0.000000000000e+00
        21    1.000000000000e+01   2.000000000000e-01   0.000000000000e+00
        22    1.050000000000e+01   2.000000000000e-01   0.000000000000e+00
        23    1.100000000000e+01   2.000000000000e-01   0.000000000000e+00
        24    1.150000000000e+01   2.000000000000e-01   0.000000000000e+00
        25    1.200000000000e+01   2.000000000000e-01   0.000000000000e+00
        26    1.250000000000e+01   2.000000000000e-01   0.000000000000e+00
        27    1.300000000000e+01   2.000000000000e-01   0.000000000000e+00
        28    1.350000000000e+01   2.000000000000e-01   0.000000000000e+00
        29    1.400000000000e+01   2.000000000000e-01   0.000000000000e+00
        30    1.450000000000e+01   2.000000000000e-01   0.000000000000e+00
        31    1.500000000000e+01   2.000000000000e-01   0.000000000000e+00
        32    0.000000000000e+00   7.000000000000e-01   0.000000000000e+00
        33    5.000000000000e-01   7.000000000000e-01   0.000000000000e+00
        34    1.000000000000e+00   7.000000000000e-01   0.000000000000e+00
        35    1.500000000000e+00   7.000000000000e-01   0.000000000000e+00
        36    2.000000000000e+00   7.000000000000e-01   0.000000000000e+00
        37    2.500000000000e+00   7.000000000000e-01   0.000000000000e+00
        38    3.000000000000e+00   7.000000000000e-01   0.000000000000e+00
        39    3.500000000000e+00   7.000000000000e-01   0.000000000000e+00
        40    4.000000000000e+00   7.000000000000e-01   0.000000000000e+00
        41    4.500000000000e+00   7.000000000000e-01   0.000000000000e+00
        42    5.000000000000e+00   7.000000000000e-01   0.000000000000e+00
        43    5.500000000000e+00   7.000000000000e-01   0.000000000000e+00
        44    6.000000000000e+00   7.000000000000e-01   0.000000000000e+00
        45    6.500000000000e+00   7.000000000000e-01   0.000000000000e+00
        46    7.000000000000e+00   7.000000000000e-01   0.000000000000e+00
        47    7.500000000000e+00   7.000000000000e-01   0.000000000000e+00
        48    8.000000000000e+00   7.000000000000e-01   0.000000000000e+00
        49    8.500000000000e+00   7.000000000000e-01   0.000000000000e+00
        50    9.000000000000e+00   7.000000000000e-01   0.000000000000e+00
        51    9.500000000000e+00   7.000000000000e-01   0.000000000000e+00
        52    1.000000000000e+01   7.000000000000e-01   0.000000000000e+00
        53    1.050000000000e+01   7.000000000000e-01   0.000000000000e+00
        54    1.100000000000e+01   7.000000000000e-01   0.000000000000e+00
        55    1.150000000000e+01   7.000000000000e-01   0.000000000000e+00
        56    1.200000000000e+01   7.000000000000e-01   0.000000000000e+00
        57    1.250000000000e+01   7.000000000000e-01   0.000000000000e+00
        58    1.300000000000e+01   7.000000000000e-01   0.000000000000e+00
        59    1.350000000000e+01   7.000000000000e-01   0.000000000000e+00
        60    1.400000000000e+01   7.000000000000e-01   0.000000000000e+00
        61    1.450000000000e+01   7.000000000000e-01   0.000000000000e+00
        62    1.500000000000e+01   7.000000000000e-01   0.000000000000e+00
        63    0.000000000000e+00   1.200000000000e+00   0.000000000000e+00
        64    5.000000000000e-01   1.200000000000e+00   0.000000000000e+00
        65    1.000000000000e+00   1.200000000000e+00   0.000000000000e+00
        66    1.500000000000e+00   1.200000000000e+00   0.000000000000e+00
        67    2.000000000000e+00   1.200000000000e+00   0.000000000000e+00
        68    2.500000000000e+00   1.200000000000e+00   0.000000000000e+00
        69    3.000000000000e+00   1.200000000000e+00   0.000000000000e+00
        70    3.500000000000e+00   1.200000000000e+00   0.000000000000e+00
        71    4.000000000000e+00   1.200000000000e+00   0.000000000000e+00
        72    4.500000000000e+00   1.200000000000e+00   0.000000000000e+00
        73    5.000000000000e+00   1.200000000000e+00   0.000000000000e+00
        74    5.500000000000e+00   1.200000000000e+00   0.000000000000e+00
        75    6.000000000000e+00   1.200000000000e+00   0.000000000000e+00
        76    6.500000000000e+00   1.200000000000e+00   0.000000000000e+00
        77    7.000000000000e+00   1.200000000000e+00   0.000000000000e+00
        78    7.500000000000e+00   1.200000000000e+00   0.000000000000e+00
        79    8.000000000000e+00   1.200000000000e+00   0.000000000000e+00
        80    8.500000000000e+00   1.200000000000e+00   0.000000000000e+00
        81    9.000000000000e+00   1.200000000000e+00   0.000000000000e+00
        82    9.500000000000e+00   1.200000000000e+00   0.000000000000e+00
        83    1.000000000000e+01   1.200000000000e+00   0.000000000000e+00
        84    1.050000000000e+01   1.200000000000e+00   0.000000000000e+00
        85    1.100000000000e+01   1.200000000000e+00   0.000000000000e+00
        86    1.150000000000e+01   1.200000000000e+00   0.000000000000e+00
        87    1.200000000000e+01   1.200000000000e+00   0.000000000000e+00
        88    1.250000000000e+01   1.200000000000e+00   0.000000000000e+00
        89    1.300000000000e+01   1.200000000000e+00   0.000000000000e+00
        90    1.350000000000e+01   1.200000000000e+00   0.000000000000e+00
        91    1.400000000000e+01   1.200000000000e+00   0.000000000000e+00
        92    1.450000000000e+01   1.200000000000e+00   0.000000000000e+00
        93    1.500000000000e+01   1.200000000000e+00   0.000000000000e+00
        94    0.000000000000e+00   1.700000000000e+00   0.000000000000e+00
        95    5.000000000000e-01   1.700000000000e+00   0.000000000000e+00
        96    1.000000000000e+00   1.700000000000e+00   0.000000000000e+00
        97    1.500000000000e+00   1.700000000000e+00   0.000000000000e+00
        98    2.000000000000e+00   1.700000000000e+00   0.000000000000e+00
        99    2.500000000000e+00   1.700000000000e+00   0.000000000000e+00
       100    3.000000000000e+00   1.700000000000e+00   0.000000000000e+00
       101    3.500000000000e+00   1.700000000000e+00   0.000000000000e+00
       102    4.000000000000e+00   1.700000000000e+00   0.000000000000e+00
       103    4.500000000000e+00   1.700000000000e+00   0.000000000000e+00
       104    5.000000000000e+00   1.700000000000e+00   0.000000000000e+00
       105    5.500000000000e+00   1.700000000000e+00   0.000000000000e+00
       106    6.000000000000e+00   1.700000000000e+00   0.000000000000e+00
       107    6.500000000000e+00   1.700000000000e+00   0.000000000000e+00
       108    7.000000000000e+00   1.700000000000e+00   0.000000000000e+00
       109    7.500000000000e+00   1.700000000000e+00   0.000000000000e+00
       110    8.000000000000e+00   1.700000000000e+00   0.000000000000e+00
       111    8.500000000000e+00   1.700000000000e+00   0.000000000000e+00
       112    9.000000000000e+00   1.700000000000e+00   0.000000000000e+00
       113    9.500000000000e+00   1.700000000000e+00   0.000000000000e+00
       114    1.000000000000e+01   1.700000000000e+00   0.000000000000e+00
       115    1.050000000000e+01   1.700000000000e+00   0.000000000000e+00
       116    1.100000000000e+01   1.700000000000e+00   0.000000000000e+00
       117    1.150000000000e+01   1.700000000000e+00   0.000000000000e+00
       118    1.200000000000e+01   1.700000000000e+00   0.000000000000e+00
       119    1.250000000000e+01   1.700000000000e+00   0.000000000000e+00
       120    1.300000000000e+01   1.700000000000e+00   0.000000000000e+00
       121    1.350000000000e+01   1.700000000000e+00   0.000000000000e+00
       122    1.400000000000e+01   1.700000000000e+00   0.000000000000e+00
       123    1.450000000000e+01   1.700000000000e+00   0.000000000000e+00
       124    1.500000000000e+01   1.700000000000e+00   0.000000000000e+00
       125    2.500000000000e-01   4.500000000000e-01   3.535537500000e-01
       126    7.500000000000e-01   4.500000000000e-01   3.535537500000e-01
       127    1.250000000000e+00   4.500000000000e-01   3.535537500000e-01
       128    1.750000000000e+00   4.500000000000e-01   3.535537500000e-01
       129    2.250000000000e+00   4.500000000000e-01   3.535537500000e-01
       130    2.750000000000e+00   4.500000000000e-01   3.535537500000e-01
       131    3.250000000000e+00   4.500000000000e-01   3.535537500000e-01
       132    3.750000000000e+00   4.500000000000e-01   3.535537500000e-01
       133    4.250000000000e+00   4.500000000000e-01   3.535537500000e-01
       134    4.750000000000e+00   4.500000000000e-01   3.535537500000e-01
       135    5.250000000000e+00   4.500000000000e-01   3.535537500000e-01
       136    5.750000000000e+00   4.500000000000e-01   3.535537500000e-01
       137    6.250000000000e+00   4.500000000000e-01   3.535537500000e-01
       138    6.750000000000e+00   4.500000000000e-01   3.535537500000e-01
       139    7.250000000000e+00   4.500000000000e-01   3.535537500000e-01
       140    7.750000000000e+00   4.500000000000e-01   3.535537500000e-01
       141    8.250000000000e+00   4.500000000000e-01   3.535537500000e-01
       142    8.750000000000e+00   4.500000000000e-01   3.535537500000e-01
       143    9.250000000000e+00   4.500000000000e-01   3.535537500000e-01
       144    9.750000000000e+00   4.500000000000e-01   3.535537500000e-01
       145    1.025000000000e+01   4.500000000000e-01   3.535537500000e-01
       146    1.075000000000e+01   4.500000000000e-01   3.535537500000e-01
       147    1.125000000000e+01   4.500000000000e-01   3.535537500000e-01
       148    1.175000000000e+01   4.500000000000e-01   3.535537500000e-01
       149    1.225000000000e+01   4.500000000000e-01   3.535537500000e-01
       150    1.275000000000e+01   4.500000000000e-01   3.535537500000e-01
       151    1.325000000000e+01   4.500000000000e-01   3.535537500000e-01
       152    1.375000000000e+01   4.500000000000e-01   3.535537500000e-01
       153    1.425000000000e+01   4.500000000000e-01   3.535537500000e-01
       154    1.475000000000e+01   4.500000000000e-01   3.535537500000e-01
       155    2.500000000000e-01   9.500000000000e-01   3.535537500000e-01
       156    7.500000000000e-01   9.500000000000e-01   3.535537500000e-01
       157    1.250000000000e+00   9.500000000000e-01   3.535537500000e-01
       158    1.750000000000e+00   9.500000000000e-01   3.535537500000e-01
       159    2.250000000000e+00   9.500000000000e-01   3.535537500000e-01
       160    2.750000000000e+00   9.500000000000e-01   3.535537500000e-01
       161    3.250000000000e+00   9.500000000000e-01   3.535537500000e-01
       162    3.750000000000e+00   9.500000000000e-01   3.535537500000e-01
       163    4.250000000000e+00   9.500000000000e-01   3.535537500000e-01
       164    4.750000000000e+00   9.500000000000e-01   3.535537500000e-01
       165    5.250000000000e+00   9.500000000000e-01   3.535537500000e-01
       166    5.750000000000e+00   9.500000000000e-01   3.535537500000e-01
       167    6.250000000000e+00   9.500000000000e-01   3.535537500000e-01
       168    6.750000000000e+00   9.500000000000e-01   3.535537500000e-01
       169    7.250000000000e+00   9.500000000000e-01   3.535537500000e-01
       170    7.750000000000e+00   9.500000000000e-01   3.535537500000e-01
       171    8.250000000000e+00   9.500000000000e-01   3.535537500000e-01
       172    8.750000000000e+00   9.500000000000e-01   3.535537500000e-01
       173    9.250000000000e+00   9.500000000000e-01   3.535537500000e-01
       174    9.750000000000e+00   9.500000000000e-01   3.535537500000e-01
       175    1.025000000000e+01   9.500000000000e-01   3.535537500000e-01
       176    1.075000000000e+01   9.500000000000e-01   3.535537500000e-01
       177    1.125000000000e+01   9.500000000000e-01   3.535537500000e-01
       178    1.175000000000e+01   9.500000000000e-01   3.535537500000e-01
       179    1.225000000000e+01   9.500000000000e-01   3.535537500000e-01
       180    1.275000000000e+01   9.500000000000e-01   3.535537500000e-01
       181    1.325000000000e+01   9.500000000000e-01   3.535537500000e-01
       182    1.375000000000e+01   9.500000000000e-01   3.535537500000e-01
       183    1.425000000000e+01   9.500000000000e-01   3.535537500000e-01
       184    1.475000000000e+01   9.500000000000e-01   3.535537500000e-01
       185    2.500000000000e-01   1.450000000000e+00   3.535537500000e-01
       186    7.500000000000e-01   1.450000000000e+00   3.535537500000e-01
       187    1.250000000000e+00   1.450000000000e+00   3.535537500000e-01
       188    1.750000000000e+00   1.450000000000e+00   3.535537500000e-01
       189    2.250000000000e+00   1.450000000000e+00   3.535537500000e-01
       190    2.750000000000e+00   1.450000000000e+00   3.535537500000e-01
       191    3.250000000000e+00   1.450000000000e+00   3.535537500000e-01
       192    3.750000000000e+00   1.450000000000e+00   3.535537500000e-01
       193    4.250000000000e+00   1.450000000000e+00   3.535537500000e-01
       194    4.750000000000e+00   1.450000000000e+00   3.535537500000e-01
       195    5.250000000000e+00   1.450000000000e+00   3.535537500000e-01
       196    5.750000000000e+00   1.450000000000e+00   3.535537500000e-01
       197    6.250000000000e+00   1.450000000000e+00   3.535537500000e-01
       198    6.750000000000e+00   1.450000000000e+00   3.535537500000e-01
       199    7.250000000000e+00   1.450000000000e+00   3.535537500000e-01
       200    7.750000000000e+00   1.450000000000e+00   3.535537500000e-01
       201    8.250000000000e+00   1.450000000000e+00   3.535537500000e-01
       202    8.750000000000e+00   1.450000000000e+00   3.535537500000e-01
       203    9.250000000000e+00   1.450000000000e+00   3.535537500000e-01
       204    9.750000000000e+00   1.450000000000e+00   3.535537500000e-01
       205    1.025000000000e+01   1.450000000000e+00   3.535537500000e-01
       206    1.075000000000e+01   1.450000000000e+00   3.535537500000e-01
       207    1.125000000000e+01   1.450000000000e+00   3.535537500000e-01
       208    1.175000000000e+01   1.450000000000e+00   3.535537500000e-01
       209    1.225000000000e+01   1.450000000000e+00   3.535537500000e-01
       210    1.275000000000e+01   1.450000000000e+00   3.535537500000e-01
       211    1.325000000000e+01   1.450000000000e+00   3.535537500000e-01
       212    1.375000000000e+01   1.450000000000e+00   3.535537500000e-01
       213    1.425000000000e+01   1.450000000000e+00   3.535537500000e-01
       214    1.475000000000e+01   1.450000000000e+00   3.535537500000e-01
       215    2.500000000000e-01   1.950000000000e+00   3.535537500000e-01
       216    7.500000000000e-01   1.950000000000e+00   3.535537500000e-01
       217    1.250000000000e+00   1.950000000000e+00   3.535537500000e-01
       218    1.750000000000e+00   1.950000000000e+00   3.535537500000e-01
       219    2.250000000000e+00   1.950000000000e+00   3.535537500000e-01
       220    2.750000000000e+00   1.950000000000e+00   3.535537500000e-01
       221    3.250000000000e+00   1.950000000000e+00   3.535537500000e-01
       222    3.750000000000e+00   1.950000000000e+00   3.535537500000e-01
       223    4.250000000000e+00   1.950000000000e+00   3.535537500000e-01
       224    4.750000000000e+00   1.950000000000e+00   3.535537500000e-01
       225    5.250000000000e+00   1.950000000000e+00   3.535537500000e-01
       226    5.750000000000e+00   1.950000000000e+00   3.535537500000e-01
       227    6.250000000000e+00   1.950000000000e+00   3.535537500000e-01
       228    6.750000000000e+00   1.950000000000e+00   3.535537500000e-01
       229    7.250000000000e+00   1.950000000000e+00   3.535537500000e-01
       230    7.750000000000e+00   1.950000000000e+00   3.535537500000e-01
       231    8.250000000000e+00   1.950000000000e+00   3.535537500000e-01
       232    8.750000000000e+00   1.950000000000e+00   3.535537500000e-01
       233    9.250000000000e+00   1.950000000000e+00   3.535537500000e-01
       234    9.750000000000e+00   1.950000000000e+00   3.535537500000e-01
       235    1.025000000000e+01   1.950000000000e+00   3.535537500000e-01
       236    1.075000000000e+01   1.950000000000e+00   3.535537500000e-01
       237    1.125000000000e+01   1.950000000000e+00   3.535537500000e-01
       238    1.175000000000e+01   1.950000000000e+00   3.535537500000e-01
       239    1.225000000000e+01   1.950000000000e+00   3.535537500000e-01
       240    1.275000000000e+01   1.950000000000e+00   3.535537500000e-01
       241    1.325000000000e+01   1.950000000000e+00   3.535537500000e-01
       242    1.375000000000e+01   1.950000000000e+00   3.535537500000e-01
       243    1.425000000000e+01   1.950000000000e+00   3.535537500000e-01
       244    1.475000000000e+01   1.950000000000e+00   3.535537500000e-01
Types

         1          8
         2          8
         3          8
         4          8
         5          8
         6          8
         7          8
         8          8
         9          8
        10          8
        11          8
        12          8
        13          8
        14          8
        15          8
        16          8
        17          8
        18          8
        19          8
        20          8
        21          8
        22          8
        23          8
        24          8
        25          8
        26          8
        27          8
        28          8
        29          8
        30          8
        31          8
        32          9
        33          9
        34          9
        35          9
        36          9
        37          9
        38          9
        39          9
        40          9
        41          9
        42          9
        43          9
        44          9
        45          9
        46          9
        47          9
        48          9
        49          9
        50          9
        51          9
        52          9
        53          9
        54          9
        55          9
        56          9
        57          9
        58          9
        59          9
        60          9
        61          9
        62          9
        63         10
        64         10
        65         10
        66         10
        67         10
        68         10
        69         10
        70         10
        71         10
        72         10
        73         10
        74         10
        75         10
        76         10
        77         10
        78         10
        79         10
        80         10
        81         10
        82         10
        83         10
        84         10
        85         10
        86         10
        87         10
        88         10
        89         10
        90         10
        91         10
        92         10
        93         10
        94         11
        95         11
        96         11
        97         11
        98         11
        99         11
       100         11
       101         11
       102         11
       103         11
       104         11
       105         11
       106         11
       107         11
       108         11
       109         11
       110         11
       111         11
       112         11
       113         11
       114         11
       115         11
       116         11
       117         11
       118         11
       119         11
       120         11
       121         11
       122         11
       123         11
       124         11
       125          3
       126          3
       127          3
       128          3
       129          3
       130          3
       131          3
       132          3
       133          3
       134          3
       135          3
       136          3
       137          3
       138          3
       139          3
       140          3
       141          3
       142          3
       143          3
       144          3
       145          3
       146          3
       147          3
       148          3
       149          3
       150          3
       151          3
       152          3
       153          3
       154          3
       155          4
       156          4
       157          4
       158          4
       159          4
       160          4
       161          4
       162          4
       163          4
       164          4
       165          4
       166          4
       167          4
       168          4
       169          4
       170          4
       171          4
       172          4
       173          4
       174          4
       175          4
       176          4
       177          4
       178          4
       179          4
       180          4
       181          4
       182          4
       183          4
       184          4
       185          5
       186          5
       187          5
       188          5
       189          5
       190          5
       191          5
       192          5
       193          5
       194          5
       195          5
       196          5
       197          5
       198          5
       199          5
       200          5
       201          5
       202          5
       203          5
       204          5
       205          5
       206          5
       207          5
       208          5
       209          5
       210          5
       211          5
       212          5
       213          5
       214          5
       215          6
       216          6
       217          6
       218          6
       219          6
       220          6
       221          6
       222          6
       223          6
       224          6
       225          6
       226          6
       227          6
       228          6
       229          6
       230          6
       231          6
       232          6
       233          6
       234          6
       235          6
       236          6
       237          6
       238          6
       239          6
       240          6
       241          6
       242          6
       243          6
       244          6

diameters

1  5.0000000000e-01
2  5.0000000000e-01
3  5.0000000000e-01
4  5.0000000000e-01
5  5.0000000000e-01
6  5.0000000000e-01
7  5.0000000000e-01
8  5.0000000000e-01
9  5.0000000000e-01
10  5.0000000000e-01
11  5.0000000000e-01

Masses

1  9.0919654890e-02
2  9.0919654890e-02
3  9.0919654890e-02
4  9.0919654890e-02
5  9.0919654890e-02
6  9.0919654890e-02
7  9.0919654890e-02
8  9.0919654890e-02
9  9.0919654890e-02
10  9.0919654890e-02
11  9.0919654890e-02

Bonds

         1          1       1       2
         2          1       2       3
         3          1       3       4
         4          1       4       5
         5          1       5       6
         6          1       6       7
         7          1       7       8
         8          1       8       9
         9          1       9      10
        10          1      10      11
        11          1      11      12
        12          1      12      13
        13          1      13      14
        14          1      14      15
        15          1      15      16
        16          1      16      17
        17          1      17      18
        18          1      18      19
        19          1      19      20
        20          1      20      21
        21          1      21      22
        22          1      22      23
        23          1      23      24
        24          1      24      25
        25          1      25      26
        26          1      26      27
        27          1      27      28
        28          1      28      29
        29          1      29      30
        30          1      31      32
        31          1      32      33
        32          1      33      34
        33          1      34      35
        34          1      35      36
        35          1      36      37
        36          1      37      38
        37          1      38      39
        38          1      39      40
        39          1      40      41
        40          1      41      42
        41          1      42      43
        42          1      43      44
        43          1      44      45
        44          1      45      46
        45          1      46      47
        46          1      47      48
        47          1      48      49
        48          1      49      50
        49          1      50      51
        50          1      51      52
        51          1      52      53
        52          1      53      54
        53          1      54      55
        54          1      55      56
        55          1      56      57
        56          1      57      58
        57          1      58      59
        58          1      59      60
        59          1      61      62
        60          1      62      63
        61          1      63      64
        62          1      64      65
        63          1      65      66
        64          1      66      67
        65          1      67      68
        66          1      68      69
        67          1      69      70
        68          1      70      71
        69          1      71      72
        70          1      72      73
        71          1      73      74
        72          1      74      75
        73          1      75      76
        74          1      76      77
        75          1      77      78
        76          1      78      79
        77          1      79      80
        78          1      80      81
        79          1      81      82
        80          1      82      83
        81          1      83      84
        82          1      84      85
        83          1      85      86
        84          1      86      87
        85          1      87      88
        86          1      88      89
        87          1      89      90
        88          1      91      92
        89          1      92      93
        90          1      93      94
        91          1      94      95
        92          1      95      96
        93          1      96      97
        94          1      97      98
        95          1      98      99
        96          1      99     100
        97          1     100     101
        98          1     101     102
        99          1     102     103
       100          1     103     104
       101          1     104     105
       102          1     105     106
       103          1     106     107
       104          1     107     108
       105          1     108     109
       106          1     109     110
       107          1     110     111
       108          1     111     112
       109          1     112     113
       110          1     113     114
       111          1     114     115
       112          1     115     116
       113          1     116     117
       114          1     117     118
       115          1     118     119
       116          1     119     120
       117          1     121     122
       118          1     122     123
       119          1     123     124
       120          1     124     125
       121          1     125     126
       122          1     126     127
       123          1     127     128
       124          1     128     129
       125          1     129     130
       126          1     130     131
       127          1     131     132
       128          1     132     133
       129          1     133     134
       130          1     134     135
       131          1     135     136
       132          1     136     137
       133          1     137     138
       134          1     138     139
       135          1     139     140
       136          1     140     141
       137          1     141     142
       138          1     142     143
       139          1     143     144
       140          1     144     145
       141          1     145     146
       142          1     146     147
       143          1     147     148
       144          1     148     149
       145          1     149     150
       146          1     150     151
       147          1     152     153
       148          1     153     154